771
 i =      315, E =    -21042.8639362003
        Cd     19.483827     25.615669     19.471491 
        Cd     22.583123     28.708728     19.424396 
        Cd     25.614722     31.790367     19.268584 
        Cd     28.638512     34.781345     19.026676 
        Cd     13.017634      9.972816     16.034246 
        Cd     34.449767     21.732187     31.583087 
        Cd      7.213432     13.328340     19.053049 
        Cd     10.210706     16.347256     19.289957 
        Cd     13.300411     19.458943     19.364622 
        Cd     16.393533     22.530988     19.465694 
        Cd     22.551947     25.613811     22.529776 
        Cd     25.623369     28.719700     22.462198 
        Cd     28.661394     31.790651     22.270476 
        Cd     31.503528     34.525534     21.643770 
        Cd     22.884594     28.714989      7.201325 
        Cd     16.207880     13.171725     16.205787 
        Cd      7.439447     10.510434     21.727314 
        Cd     10.233598     13.300428     22.300785 
        Cd     13.304698     16.426880     22.377866 
        Cd     16.396226     19.488254     22.500922 
        Cd     19.460723     22.557311     22.554800 
        Cd     25.597866     25.556189     25.555385 
        Cd     28.664412     28.686773     25.502368 
        Cd     31.469452     31.519118     25.085020 
        Cd     19.375088     16.329501     16.294659 
        Cd     13.182019     19.280476     13.151451 
        Cd     10.094173     10.538202     25.712992 
        Cd     13.480362     13.502547     25.344419 
        Cd     16.479975     16.505984     25.513600 
        Cd     19.513169     19.480176     25.603735 
        Cd     22.562031     22.532635     25.612857 
        Cd     28.632804     25.610975     28.755590 
        Cd     31.495879     28.327794     28.452624 
        Cd     13.343972     34.778143     23.015141 
        Cd     34.565697     25.006159     28.296647 
        Cd     22.630845     13.308036     22.549970 
        Cd     13.788008     10.479442     28.157385 
        Cd     16.639782     13.478604     28.478080 
        Cd     19.613137     16.402513     28.677798 
        Cd     22.632290     19.428522     28.696735 
        Cd     25.656378     22.459116     28.703655 
        Cd     31.418929     25.271324     31.510872 
        Cd     28.690939     13.317457     16.438343 
        Cd     25.726253     16.313400     22.611504 
        Cd     31.760643     19.338719     25.673171 
        Cd     25.652167     19.461978     19.444183 
        Cd     22.267342      7.124731     16.504919 
        Cd     25.504696     10.217005     16.474172 
        Cd     16.243081     10.519306     31.851470 
        Cd     19.675461     13.277386     31.743699 
        Cd     22.696857     16.306193     31.775744 
        Cd     25.690739     19.297120     31.771661 
        Cd     28.728286     22.300698     31.789214 
        Cd     22.620023     22.620010      7.069666 
        Cd     34.542258     28.308931     24.998502 
        Cd     22.909409     13.282765     34.775374 
        Cd     25.836143     16.153291     34.799969 
        Cd     28.718052     19.053848     34.773511 
        Cd     31.562044     21.697932     34.511843 
        Cd     22.297836     10.252932     13.280293 
        Cd     22.515192     19.507473     10.175019 
        Cd     13.197989     10.334013     22.391687 
        Cd     28.716431     22.938863      7.215159 
        Cd     32.017774     28.978523     15.993341 
        Cd     16.330674     19.351517     10.222655 
        Cd     18.873434     10.067587     10.030977 
        Cd     25.539707     13.378138     13.295205 
        Cd     19.509017     22.525108     10.173155 
        Cd     13.039875     13.044246     12.991835 
        Cd     31.564945      7.487503     20.340056 
        Cd     22.560875     16.381592     19.443039 
        Cd     25.527110     16.486002     10.253849 
        Cd     25.808106     16.206663     28.843337 
        Cd     31.757330     22.699516     16.303413 
        Cd     28.953359     26.007967      9.942259 
        Cd     16.504998     10.184845     25.458277 
        Cd     31.761908     13.284191     19.690608 
        Cd     34.878260     16.511220     19.698121 
        Cd     19.461991     19.446056     19.427019 
        Cd     16.132549      7.230971     16.222839 
        Cd     13.552713      7.448785     24.922433 
        Cd     16.211378     16.237495     13.145754 
        Cd     19.063462     13.305152      7.221761 
        Cd      9.938597     13.071747     16.008938 
        Cd     16.319791     16.337314     19.343692 
        Cd     28.821795     22.791152     13.148555 
        Cd     25.768584      7.216186     25.855208 
        Cd     28.795358     28.851756     19.199262 
        Cd     31.788988     16.499853     16.472802 
        Cd     28.715713     19.437707     22.574766 
        Cd     19.219311     13.193955     13.170337 
        Cd     28.722208     19.699755     10.200813 
        Cd     16.508997     22.319919      7.106418 
        Cd     10.593552     25.336175     10.491799 
        Cd     13.555286     28.969275     10.096961 
        Cd     16.236541     31.489740     10.103132 
        Cd     20.022721     34.370018     10.359094 
        Cd     13.150873     16.240514     16.188556 
        Cd     22.734136     28.835894     13.146207 
        Cd     25.916597     32.066994     12.997168 
        Cd     22.583107     22.558120     19.436005 
        Cd      7.557471     21.820763     10.423857 
        Cd     13.363043     25.672396     13.250415 
        Cd     16.563054     28.570022     13.462718 
        Cd     19.554499     31.721522     13.155678 
        Cd     22.798415     34.732262     13.193254 
        Cd      7.260321     19.161218     13.271192 
        Cd     10.259523     22.389941     13.248198 
        Cd     16.460434     25.535288     16.456818 
        Cd     19.583233     28.695302     16.404632 
        Cd     22.611812     31.787008     16.247633 
        Cd     25.742923     34.801272     16.103037 
        Cd     34.878937     22.635826     19.378283 
        Cd      7.205225     16.230379     16.145069 
        Cd     10.239380     19.364022     16.295390 
        Cd     13.304413     22.519824     16.320137 
        Cd     19.426850     28.692400     22.590114 
        Cd     22.464874     31.814806     22.467056 
        Cd     25.431926     34.924365     22.232792 
        Cd     34.869523     22.316319     25.496845 
        Cd      7.111989     16.515218     22.280485 
        Cd     10.195181     19.520254     22.472847 
        Cd     13.303864     22.550709     22.619179 
        Cd     16.326141     25.666260     22.648199 
        Cd     22.416263     28.676097     25.599566 
        Cd     25.460375     31.825165     25.496968 
        Cd     28.177693     34.624321     24.961363 
        Cd     28.717912     22.493245     25.665566 
        Cd      9.978212     10.045669     18.895465 
        Cd      7.340743     13.730508     25.040432 
        Cd     10.242687     16.484843     25.504271 
        Cd     13.298602     19.487002     25.663200 
        Cd     16.319753     22.586595     25.696431 
        Cd     19.370136     25.659116     25.693150 
        Cd     25.419381     28.537833     28.546632 
        Cd     28.275177     31.588563     28.221433 
        Cd     25.598153     16.411799     16.401340 
        Cd     19.595671     10.321100     28.773301 
        Cd     10.116548     13.118372     28.465467 
        Cd     13.270472     16.248998     28.715069 
        Cd     16.340179     19.473511     28.701674 
        Cd     19.406260     22.532059     28.705210 
        Cd     22.423261     25.578016     28.700017 
        Cd     28.395313     28.891516     31.981116 
        Cd     34.788478     25.840986     16.152828 
        Cd     25.663586     13.292945     19.519380 
        Cd     32.044611     26.002584     13.018707 
        Cd     13.481195     13.091874     31.824304 
        Cd     16.469409     16.437520     31.735513 
        Cd     19.504612     19.461352     31.800972 
        Cd     22.506510     22.470441     31.818475 
        Cd     25.508063     25.504485     31.789201 
        Cd     31.759667     25.525323     25.517519 
        Cd     22.587582      7.116941     22.612506 
        Cd     25.668727     10.229351     22.700868 
        Cd     16.902548     13.697243     34.620382 
        Cd     19.683415     16.456382     34.881748 
        Cd     22.604112     19.355526     34.898081 
        Cd     25.502156     22.264825     34.895504 
        Cd     28.244527     25.016321     34.619086 
        Cd      7.500353     31.577563     20.420560 
        Cd     31.979035     18.881027     31.978824 
        Cd      7.236971     28.704836     22.986426 
        Cd     10.089634     31.946975     23.157003 
        Cd     28.631320     16.469766     13.294909 
        Cd     31.751748     19.697708     13.262685 
        Cd     25.633483     19.579446     13.293353 
        Cd     25.949168      9.947995     28.970756 
        Cd     25.514108     19.690553      7.103628 
        Cd     16.420924     13.341061     22.390045 
        Cd     34.757792     22.925212     13.287611 
        Cd     25.828723     25.847283      7.166630 
        Cd     32.060579     16.014322     28.962424 
        Cd     34.862323     25.518224     22.293644 
        Cd     31.912611     31.989899     18.855079 
        Cd     16.242506     34.779294     25.916784 
        Cd     22.310092     16.494198      7.116817 
        Cd     25.491252      7.123213     19.704391 
        Cd     28.714437     10.231845     19.701054 
        Cd     34.763412     13.303569     22.919143 
        Cd     28.846682     19.225757     28.835070 
        Cd     29.005761     13.022469     28.962925 
        Cd     28.836285     13.173044     22.776883 
        Cd     34.787932     16.213829     25.810816 
        Cd     25.677737     22.703617     10.200495 
        Cd     28.704909     22.599649     19.386827 
        Cd     31.962654     23.125784     10.015877 
        Cd     13.040714     16.071212      9.945208 
        Cd     17.041912      7.448588     28.390591 
        Cd     31.753217     25.695582     19.287448 
        Cd     34.878323     19.723409     16.499381 
        Cd     10.503638     28.942846     13.228456 
        Cd     13.123899     31.575559     13.380023 
        Cd     16.815793     34.458745     13.537694 
        Cd     31.794933     19.518006     19.490793 
        Cd     22.558419     19.464138     16.366316 
        Cd      7.538994     25.237137     13.697073 
        Cd     13.455981     28.558156     16.650881 
        Cd     16.395566     31.752126     16.411240 
        Cd     19.596330     34.843679     16.393921 
        Cd     28.951835      9.944235     26.002702 
        Cd      7.157879     22.402057     16.454332 
        Cd     10.305656     25.618860     16.403993 
        Cd     16.409290     28.695326     19.596737 
        Cd     19.449672     31.816715     19.458560 
        Cd     22.521739     34.895784     19.326820 
        Cd      7.118388     19.448699     19.358342 
        Cd     10.209346     22.556223     19.455622 
        Cd     13.310853     25.593930     19.612113 
        Cd     19.365395     31.760371     25.745615 
        Cd     22.290399     34.863535     25.530932 
        Cd     31.785688     22.522220     22.488824 
        Cd      7.129985     19.696905     25.474403 
        Cd     10.245200     22.651093     25.688083 
        Cd     13.183007     25.763798     25.818403 
        Cd     16.239560     28.819007     25.822223 
        Cd     22.405722     31.666243     28.813965 
        Cd     24.861276     34.589827     28.473576 
        Cd     22.439809     16.396185     13.294570 
        Cd     19.499841     22.530587     16.378732 
        Cd     22.670495     25.688502     10.183562 
        Cd      7.416572     16.950700     28.235747 
        Cd     10.258038     19.615488     28.721570 
        Cd     13.180619     22.721799     28.842737 
        Cd     16.228675     25.750957     28.866360 
        Cd     19.253240     28.789019     28.855790 
        Cd     25.743149     31.489543     31.901764 
        Cd     21.723088     10.473864      7.520239 
        Cd     25.101079     13.755625      7.404200 
        Cd     10.530940     16.558188     31.427352 
        Cd     13.272046     19.603685     31.737272 
        Cd     16.328072     22.626522     31.769784 
        Cd     19.336138     25.623172     31.807469 
        Cd     22.342873     28.684970     31.775047 
        Cd     28.265909     16.902357      7.398317 
        Cd     31.562625     20.275284      7.508200 
        Cd     22.778172     13.181118     28.814283 
        Cd     13.710225     16.907124     34.546796 
        Cd     16.496201     19.624935     34.868298 
        Cd     19.393850     22.548073     34.911772 
        Cd     22.313923     25.454369     34.933180 
        Cd     25.016408     28.272836     34.707941 
        Cd     13.211659      7.302654     19.166751 
        Cd     19.417270     19.418772      7.098163 
        Cd     32.063991     13.042575     25.990189 
        Cd     19.583078     25.615895     13.296307 
        Cd     22.643275     25.692021     16.308833 
        Cd     19.046620      7.261554     13.307070 
        Cd     25.692995     25.710459     19.363079 
        Cd     16.271135     10.246726     19.351169 
        Cd     25.209102     10.528164     10.523799 
        Cd     28.707041     25.660881     22.434726 
        Cd      9.949057     16.076974     13.032023 
        Cd     19.363796      7.122153     19.402203 
        Cd     28.877486     13.125592      9.849040 
        Cd     31.480785     16.785495     10.515677 
        Cd     25.798018     13.148540     25.782755 
        Cd     25.699765     22.640585     16.305523 
        Cd     20.039553      7.676647     31.599307 
        Cd     28.864250     16.215459     25.785880 
        Cd     19.694723      7.136141     25.518870 
        Cd     19.289881     10.243030     16.332575 
        Cd     19.508539     16.396810     22.495737 
        Cd     34.472845     31.605214     21.587266 
        Cd     19.688487     25.513139      7.062530 
        Cd     34.743438     19.117486     28.705046 
        Cd     25.761148     28.865666     16.181134 
        Cd     23.067974     10.016006     32.003283 
        Cd     21.638957      7.529351     10.417649 
        Cd     23.043880     31.994112      9.957247 
        Cd     28.293371     10.442595     13.549318 
        Cd     31.562473     13.706552     13.549540 
        Cd     34.606568     17.047156     13.701388 
        Cd     34.879658     19.426795     22.585994 
        Cd     25.970679     13.029916     32.051207 
        Cd     28.970778     15.999823     32.041545 
        Cd     10.519411     31.520960     17.040808 
        Cd     13.766497     34.556191     16.881323 
        Cd     28.838459     25.810568     16.180733 
        Cd     28.715883     19.541046     16.333250 
        Cd     22.306664     13.291608     10.218751 
        Cd     31.750165     28.741930     22.264133 
        Cd     22.644965     10.234919     25.703999 
        Cd      7.546288     28.314567     16.828523 
        Cd     13.317470     31.795408     19.757683 
        Cd     16.492727     34.872786     19.692355 
        Cd     22.604327     19.443413     22.546633 
        Cd     22.475230     13.297850     16.333339 
        Cd     28.685877      7.232771     22.948644 
        Cd     31.961035     10.032012     23.126846 
        Cd     16.000003     13.069281      9.943520 
        Cd      7.161233     25.560640     19.652320 
        Cd     10.233470     28.721706     19.756482 
        Cd     16.355409     31.769804     22.737256 
        Cd     19.382016     34.883827     22.625906 
        Cd     28.909025     32.057797     15.977761 
        Cd     13.297268     22.371842     10.225111 
        Cd      7.126780     22.634630     22.572850 
        Cd     10.241400     25.672085     22.721266 
        Cd     13.206026     28.808785     22.801633 
        Cd     19.193885     34.695155     28.810344 
        Cd     24.947614      7.398748     13.703630 
        Cd     31.482467     10.507135     16.810743 
        Cd     34.596885     13.715182     16.992322 
        Cd     16.487314     25.556924     10.208523 
        Cd      7.273649     22.856394     28.720107 
        Cd      9.978405     25.927378     28.976543 
        Cd     13.045190     28.946477     29.030235 
        Cd     16.077698     32.014818     29.019266 
        Cd     21.909744     34.303361     31.674639 
        Cd     31.738801     22.343513     28.730309 
        Cd     22.816582      7.289459     28.766885 
        Cd      7.551492     20.183340     31.558633 
        Cd     10.032819     23.051508     31.985126 
        Cd     13.051783     25.918802     32.074246 
        Cd     16.066427     28.885253     32.083925 
        Cd     18.929365     31.932856     32.059068 
        Cd     16.450226      7.136801     22.289978 
        Cd     10.467347     21.770648      7.515356 
        Cd     10.430837     20.174608     34.446351 
        Cd     13.294287     22.818169     34.751861 
        Cd     16.178584     25.749393     34.824245 
        Cd     19.117395     28.632419     34.801409 
        Cd     13.780157     25.087323      7.388385 
        Cd     19.425138     19.443411     13.284605 
        Cd      7.223240     25.791524     25.860458 
        Cd     13.163496     13.202299     19.211033 
        Cd     28.279123      7.405410     16.989483 
        Cd     34.485213     10.423686     20.333111 
        Cd     19.652532     28.710819     10.230415 
        Cd      9.986532     28.931394     26.013009 
        Cd     13.098371     32.020753     26.030226 
        Cd     19.512240     10.215424     22.471685 
        Cd     13.294370     19.122044      7.229234 
        Cd     25.651578     22.536056     22.517639 
        Cd     34.746231     28.717990     19.044345 
        Cd     22.599554     22.586426     13.286497 
        Cd     28.988570     28.974628     13.015901 
        Cd     15.999157      9.971147     13.045714 
        Cd     19.309964     16.340855     10.223827 
        Cd     10.036358     18.946879     10.017689 
        Cd     16.382084     22.488126     13.286633 
        Cd     16.320430     19.402461     16.290477 
        Cd     19.443174     13.313940     19.374300 
        Cd     19.603715     13.326522     25.558457 
        Cd     22.664900     16.321847     25.670973 
        Cd     25.727864     19.377018     25.682769 
        Cd     28.718755     16.366663     19.526263 
        Cd     16.177991     16.219584      7.203737 
        Cd     16.944044     28.291428      7.301519 
        Cd     25.771968     25.801425     13.130105 
        Cd     22.501576     10.206560     19.489650 
        Cd     31.767268     16.333823     22.680772 
        Cd     25.926629     28.961112      9.925204 
        Cd     34.500051     20.341631     10.409628 
        Cd     20.194926     31.517768      7.457619 
        Cd     10.359287      7.696563     21.913104 
        Cd     21.758528     31.480984     34.578963 
        Cd     20.216750     10.485821     34.531283 
        Cd     10.489613     34.525967     20.410426 
        Se     30.178653     14.816527     11.642438 
        Se     11.509385     17.625054      8.313189 
        Se     11.498072     14.613317     11.493404 
        Se     33.473371     30.395976     23.868329 
        Se     30.428948     21.205227     11.550117 
        Se     11.706546     33.537950     18.165117 
        Se     17.947964     24.079460     14.792134 
        Se     27.340721     11.558057     24.253457 
        Se     21.028197     20.999398     14.790669 
        Se      8.328055     17.640507     11.497239 
        Se     14.793949     17.941926     24.040920 
        Se     30.342848     14.779861     17.929073 
        Se     24.139012     11.690418     21.004637 
        Se     30.300372     24.124040     20.946982 
        Se     17.893344     21.024205     24.120343 
        Se     17.850597      8.772674     30.460132 
        Se     17.987526      8.556646     23.990668 
        Se     14.826208     20.936176      8.599719 
        Se     17.889613     17.879156     20.948643 
        Se     20.989560     11.700324     17.865283 
        Se     24.225169     30.442625     14.646350 
        Se     11.558170     33.654776     24.485516 
        Se     30.439662     11.563365     21.192083 
        Se     20.992543     24.125481     24.130126 
        Se     17.777651     30.405884     27.361177 
        Se     14.561983     27.394475     33.699115 
        Se     24.180889     27.289357     17.819611 
        Se     11.490027      8.784132     24.115220 
        Se     30.452923     17.749314     27.323736 
        Se     30.300816     20.999784     24.111319 
        Se     14.693199     27.308235     27.362751 
        Se      8.302091     11.542658     17.558210 
        Se     17.611430     30.418695     33.729672 
        Se     27.184746     21.110949      8.577832 
        Se     24.043624      8.565986     17.944612 
        Se     17.889770     20.976623     17.862826 
        Se     17.919708     30.315604     21.066537 
        Se     17.947994     14.820440     24.046865 
        Se     11.581636     20.856586     11.549102 
        Se     30.309653     17.902452     21.021584 
        Se     14.672631     14.689052     14.659549 
        Se     27.194360     14.816030     14.817266 
        Se     17.825858      8.622819     17.879566 
        Se     27.291907     30.457176     17.721689 
        Se     27.201263     27.150798     27.122790 
        Se     11.577997     17.787970     14.652971 
        Se     30.343103     18.047180      8.524126 
        Se     14.558332     11.492201     11.469478 
        Se     17.930021     27.210379     17.934189 
        Se     21.077110     11.703980     24.052380 
        Se     24.114917     14.772455     17.887908 
        Se     21.046405     30.321837     17.912870 
        Se     24.052036     24.013506     33.446383 
        Se     21.007894      8.564411     20.979880 
        Se     27.251432     24.091292     24.070017 
        Se     14.753500     27.257286     21.119591 
        Se     14.882387     11.717817     23.974735 
        Se     21.210853     11.587179     30.421845 
        Se     24.079704     33.414405     17.800008 
        Se     27.205368     17.998179     11.672574 
        Se     27.081900     27.098735     33.481503 
        Se     11.710611     17.871968     27.251414 
        Se      8.581079     17.953015     30.346995 
        Se     24.157793     24.134603     20.963443 
        Se     33.649713     20.539903     33.665050 
        Se     21.361319      8.401786     33.645606 
        Se     27.076545     30.139726     30.012031 
        Se     14.862867     27.117862     14.910436 
        Se      8.587179     17.961722     24.021206 
        Se     33.513674     14.883938     14.848652 
        Se     24.272025     14.673307     30.424470 
        Se     24.155279     24.159734      8.558301 
        Se     14.853424     14.838553     33.373048 
        Se     27.226665     21.005174     20.976181 
        Se     24.258801     11.567368     27.314250 
        Se     11.617585     17.941000     33.385513 
        Se     27.193458     20.881430     33.408762 
        Se     17.991847     27.172057     11.710276 
        Se     24.217720     17.827196     27.261169 
        Se     17.910570     20.995464     11.685782 
        Se      8.498398     30.354669     18.172249 
        Se     14.856770     33.417531     21.172177 
        Se     20.917389     14.736567     14.718643 
        Se     30.432912     24.272799     14.653055 
        Se      8.631914     24.144672     17.888433 
        Se     21.023948     21.019207      8.547785 
        Se     20.607508     33.570822     33.724341 
        Se     14.818076     21.012489     33.370237 
        Se     30.487384      8.316015     24.424479 
        Se     18.000487     30.302354     14.853010 
        Se     24.069746     17.942049      8.565813 
        Se      8.584553     21.043706     20.962176 
        Se     30.488638     24.440336      8.314557 
        Se     11.553918     11.604233     20.772670 
        Se     11.568307     21.145345     30.433282 
        Se      8.604425     24.063099     11.615329 
        Se     33.413363     24.065002     24.044007 
        Se     30.334584     30.335920     27.147068 
        Se     11.698097     14.871004     23.948564 
        Se     30.345621     23.943536     33.494148 
        Se     11.587273     24.219729     27.337323 
        Se      8.594496     14.842965     20.878153 
        Se     11.691370     17.945625     20.905162 
        Se     20.987973     33.352665     14.720681 
        Se     27.279313     24.202894     17.808331 
        Se     14.798323     21.009192     20.986604 
        Se     11.690910     27.174583     18.067312 
        Se     11.562581     14.706136     17.721274 
        Se     33.654667      8.332505     21.488839 
        Se     11.706786     20.990331     24.127840 
        Se     17.886309     24.124969     21.033439 
        Se     33.461003     27.160040     27.155274 
        Se     24.215424     14.732554     24.158143 
        Se     17.739619     14.691117     11.559430 
        Se     27.322270     24.272818     11.546964 
        Se     27.122261     33.420332     20.864102 
        Se      8.601801     27.184021     21.154953 
        Se     21.061717     24.099725     11.680986 
        Se     33.667414     27.480295     14.531960 
        Se     24.118697      8.607026     24.156540 
        Se     33.465215     18.084167     11.613628 
        Se      8.761503     27.354535     14.696046 
        Se     24.123031     33.223423     30.533475 
        Se     14.928069     30.185198     12.027506 
        Se     17.637635     33.635270     30.558345 
        Se     14.840416     30.329530     18.054830 
        Se     21.016653      8.660312     27.222541 
        Se     24.413044     11.507748     33.680245 
        Se     33.425431     21.029093     20.985296 
        Se     11.603920     30.428816     21.240155 
        Se     24.391484     30.492040      8.290775 
        Se     14.921137      8.437231     27.035447 
        Se     30.533439     11.476535     27.431882 
        Se     17.897139     33.394541     24.212163 
        Se     30.326831     17.936660     14.756854 
        Se      8.356958     27.424134     27.486242 
        Se     24.101559     30.317647     20.968189 
        Se     30.525185     27.461946     11.462328 
        Se     14.744038     24.152333     24.196572 
        Se     21.004497     20.961296     33.440263 
        Se     27.176029      8.599253     21.103016 
        Se     30.501648     30.546377     14.541220 
        Se     17.839047     27.257258     24.188686 
        Se     11.644579     14.465869     30.312137 
        Se     11.530829     30.480063     27.466259 
        Se     24.015927     30.291418     27.141586 
        Se     14.740421     17.860157     30.279282 
        Se     24.103015     27.210176     24.088755 
        Se     33.638890     21.480106      8.323774 
        Se     33.680655     24.420434     11.500266 
        Se     33.697314     14.560426     27.443591 
        Se     14.731788     21.050994     27.277983 
        Se     27.384533     30.480399     11.502301 
        Se     30.165890     27.343505     30.486041 
        Se     17.832909     14.744425     17.802336 
        Se     27.347376     17.736247     30.433599 
        Se     17.821122     33.253054     11.469544 
        Se     21.180373     30.421948     11.534808 
        Se     17.739867     11.579915     14.668698 
        Se      8.327556     14.586143     14.524109 
        Se     14.540113     14.585746      8.318501 
        Se      8.634241     20.977709     14.791981 
        Se     14.737279     17.848823     17.794003 
        Se     20.970276     17.916875     11.680716 
        Se     14.596342     33.640435     27.524466 
        Se     33.374559     20.944407     27.182145 
        Se      8.370720     20.619683      8.348288 
        Se     21.007775     33.337831     27.263159 
        Se     14.741901     14.755377     20.873262 
        Se     24.114393     17.910710     14.768666 
        Se     14.750222      8.670838     20.975376 
        Se     24.117088     21.045174     11.674906 
        Se     27.447950     27.475275      8.314414 
        Se     27.351287     14.663376     27.322665 
        Se     14.685871     24.211209     30.444396 
        Se     17.775355     27.273127     30.457393 
        Se     30.451987     14.672468     24.253348 
        Se     20.811816     30.385718     30.468666 
        Se     20.993353     17.870687     17.853329 
        Se     21.073811     27.180141      8.573377 
        Se     11.498207     11.530375     14.562288 
        Se     27.195537     30.362612     24.052226 
        Se     20.893360     14.829519      8.596644 
        Se     17.833526     17.845016     14.712273 
        Se     20.800580     11.586992     11.565475 
        Se     30.363796      8.519918     18.074671 
        Se     33.597775     33.702708     20.477329 
        Se     14.739785     20.946475     14.712523 
        Se     14.528764      8.345777     14.556922 
        Se      8.362517     30.482885     24.465894 
        Se     27.288499     21.105315     14.718856 
        Se     18.048833     11.701648     33.413334 
        Se     14.991966     11.901471     29.962644 
        Se     27.237265     11.657208     17.925450 