33
 i =       47, E =     -4043.8485700335
        Cl      -0.910491       7.214308       6.693878
        Cl       1.590784       8.564860      -3.865445
        Cl      -4.307037       0.009034      -8.420637
        Cl       1.536902      -2.388272       9.101635
        Cl      -5.993994      -6.274559      -4.734885
        Cl       9.505902      -1.851327       1.294392
        Cl      -7.679948       2.143190       4.355035
        Cl       2.613744       9.025486       1.862328
        Cl      -0.856856      -8.723727       3.735762
        Cl       2.464013       3.714335       8.410423
        Cl      -0.757143       9.412411      -0.456071
        Cl      -2.100715      -3.454485      -8.689662
        Cl      -4.361711      -8.298856       1.457025
        Cl      -8.869807      -1.002493       1.688519
        Cl       4.778033       0.002975       8.310429
        Cl       8.360727      -4.888691      -1.281903
        Cl       1.197377      -9.501254       0.268370
        Cl       8.414037      -2.144278      -4.536689
        Cl       4.915729       8.145936      -1.558279
        Cl      -8.865258       1.562422      -1.352194
        Cl      -2.305031      -8.941942      -2.291994
        Cl      -0.806542       2.226697      -9.239422
        Cl       1.379456      -1.202354      -9.470958
        Cl       9.549569       0.864406      -1.983007
        Cl      -0.815242       1.080078       9.393042
        Cl      -7.676493       4.706107       1.310313
		He       0.0            0.0            0.0
		He       1.0            0.0            0.0
		He      -1.0            0.0            0.0
		He       0.0            1.0            0.0
		He       0.0           -1.0            0.0
		He       0.0            0.0            1.0
		He       0.0            0.0           -1.0
